# Wall shear stress
# Time        	patch         	min           	max           
682           	ground	(-1.770941e-01 -3.467712e-01 -2.169773e-02)	(7.404117e-02 3.467693e-01 1.156948e-02)
682           	side1	(-4.388502e-01 -1.076970e-01 -6.278391e-01)	(2.997811e-01 4.784158e-01 1.071441e-01)
682           	side2	(-4.384928e-01 -4.834153e-01 -6.252661e-01)	(3.039660e-01 1.044569e-01 1.071450e-01)
682           	front	(-3.864440e-01 -9.359798e-01 -1.028914e+00)	(7.882803e-04 9.250911e-01 1.742780e-01)
682           	back	(-2.468055e-01 -1.009436e-01 -8.733447e-02)	(7.490693e-02 1.009360e-01 4.125172e-02)
682           	roof	(-4.871539e-01 -5.043975e-01 -5.968730e-01)	(3.232256e-01 5.032103e-01 1.185856e-01)
