# y+ ()       
# Time        	patch         	min           	max           	average       
682           	ground	2.142745e-02	5.894691e+00	4.284025e+00
682           	side1	5.947767e-01	8.065516e+00	2.628397e+00
682           	side2	5.955383e-01	8.065227e+00	2.629830e+00
682           	front	3.111148e-01	6.773170e+00	2.372665e+00
682           	back	5.619464e-01	7.131792e+00	3.152500e+00
682           	roof	1.259384e+00	8.086414e+00	3.072586e+00
